 Gaussian 09, Revision B.01,
 Gaussian 09:  EM64M-G09RevB.01 12-Aug-2010

 ---------------------------------------------------------------
 # b3lyp/3-21g opt(ts,calcfc,noeigentest) freq geom=connectivity
 ---------------------------------------------------------------

 -------------------
 Title Card Required
 -------------------
 Symbolic Z-matrix:
 Charge = -1 Multiplicity = 1

 SCF Done:  E(RB3LYP) =  -238.193602814     A.U. after   11 cycles
 SCF Done:  E(RB3LYP) =  -238.193842649     A.U. after    8 cycles
 Optimization completed.
    -- Stationary point found.
 Normal termination of Gaussian 09 at Mon Apr  1 21:41:54 2013.

 -----------------------------------------------------------------
 #N Geom=AllCheck Guess=TCheck SCRF=Check GenChk RB3LYP/3-21G Freq
 -----------------------------------------------------------------

 Title Card Required
 -------------------
 Redundant internal coordinates taken from checkpoint file:
 CH3F2TS.chk
 Charge = -1 Multiplicity = 1

                         Standard orientation:
 ---------------------------------------------------------------------
 Center     Atomic      Atomic             Coordinates (Angstroms)
 Number     Number       Type             X           Y           Z
 ---------------------------------------------------------------------
      1          6           0        0.000000    0.000000    0.000000
      2          1           0        0.000000    1.079775    0.000000
      3          1           0       -0.935113   -0.539888    0.000000
      4          1           0        0.935113   -0.539888    0.000000
      5          9           0        0.000000    0.000000    1.807553
      6          9           0        0.000000    0.000000   -1.807553
 ---------------------------------------------------------------------

 SCF Done:  E(RB3LYP) =  -238.193842649     A.U. after    1 cycles

 The electronic state is 1-A1'.
 Alpha  occ. eigenvalues --  -24.10226 -24.10167  -9.93374  -0.72448  -0.71658
 Alpha  occ. eigenvalues --   -0.42525  -0.20227  -0.20227  -0.07603   0.02441
 Alpha  occ. eigenvalues --    0.02441   0.03597   0.03597   0.04602
 Alpha virt. eigenvalues --    0.35469   0.35561   0.40786   0.40786   0.97216
 Alpha virt. eigenvalues --    0.97216   1.11276   1.17012   1.28061   1.28061
 Alpha virt. eigenvalues --    1.91383   2.19106   2.19106   2.27522   2.27522

 Mulliken atomic charges:
              1
     1  C   -0.283704
     2  H    0.132959
     3  H    0.132959
     4  H    0.132959
     5  F   -0.557586
     6  F   -0.557586
 Sum of Mulliken atomic charges =  -1.00000

 Dipole moment (field-independent basis, Debye):
    X=              0.0000    Y=              0.0000    Z=              0.0000  Tot=              0.0000
 Quadrupole moment (field-independent basis, Debye-Ang):
   XX=            -17.1861   YY=            -17.1861   ZZ=            -36.0911
   XY=              0.0000   XZ=              0.0000   YZ=              0.0000

  Exact polarizability:  11.878   0.000  11.877   0.000   0.000  27.160
 Approx polarizability:  13.739   0.000  13.739   0.000   0.000  51.113

 ******    1 imaginary frequencies (negative Signs) ******

                     1                      2                      3
                    A2"                    E'                     E'
 Frequencies --  -526.3264               327.1582               327.1587
 Red. masses --     6.3442                 4.2969                 4.2969
 Frc consts  --     1.0355                 0.2710                 0.2710
 IR Inten    --   520.6869                14.0110                14.0107

                     4                      5                      6
                    A1'                    E"                     E"
 Frequencies --   385.2025               937.4408               937.4410
 Red. masses --    18.9099                 1.0214                 1.0214
 Frc consts  --     1.6532                 0.5288                 0.5288
 IR Inten    --     0.0000                 0.0000                 0.0000

                     7                      8                      9
                    A2"                    E'                     E'
 Frequencies --  1065.0180              1380.5142              1380.5146
 Red. masses --     1.1663                 1.1264                 1.1264
 Frc consts  --     0.7794                 1.2648                 1.2648
 IR Inten    --     7.4312                 2.0499                 2.0498

                    10                     11                     12
                    A1'                    E'                     E'
 Frequencies --  3073.1164              3255.4356              3255.4369
 Red. masses --     1.0081                 1.1277                 1.1277
 Frc consts  --     5.6092                 7.0417                 7.0417
 IR Inten    --     0.0000                90.6959                90.6917

 - Thermochemistry -
 -------------------
 Temperature   298.150 Kelvin.  Pressure   1.00000 Atm.
 Atom     1 has atomic number  6 and mass  12.00000

 Molecular mass:    53.02028 amu.
 Principal axes and moments of inertia in atomic units:
                           1         2         3
     Eigenvalues --    12.58841 449.62424 449.62424
           X            0.00000   1.00000   0.00000
           Y            0.00000   0.00000   1.00000
           Z            1.00000   0.00000   0.00000
 This molecule is a prolate symmetric top.
 Rotational symmetry number  6.
 Rotational temperatures (Kelvin)      6.88044     0.19264     0.19264
 Rotational constants (GHZ):         143.36528     4.01389     4.01389
    1 imaginary frequencies ignored.
 Zero-point vibrational energy      97641.8 (Joules/Mol)
                                   23.33695 (Kcal/Mol)
 Warning -- explicit consideration of   3 degrees of freedom as
           vibrations may cause significant error
 Vibrational temperatures:    470.71   470.71   554.22  1348.77  1348.77
          (Kelvin)           1532.32  1986.25  1986.25  4421.52  4683.84
                             4683.84

 Zero-point correction=                           0.037190 (Hartree/Particle)
 Thermal correction to Energy=                    0.041259
 Thermal correction to Enthalpy=                  0.042204
 Thermal correction to Gibbs Free Energy=         0.013390
 Sum of electronic and zero-point Energies=           -238.156653
 Sum of electronic and thermal Energies=              -238.152583
 Sum of electronic and thermal Enthalpies=            -238.151639
 Sum of electronic and thermal Free Energies=         -238.180452

                     E (Thermal)             CV                S
                      KCal/Mol        Cal/Mol-Kelvin    Cal/Mol-Kelvin
 Total                   25.891             12.145             60.643
 Electronic               0.000              0.000              0.000
 Translational            0.889              2.981             37.827
 Rotational               0.889              2.981             18.898
 Vibrational             24.113              6.184              3.918
 Vibration     1          0.711              1.621              1.274
 Vibration     2          0.711              1.621              1.274
 Vibration     3          0.754              1.502              1.019

 Optimization completed.
    -- Stationary point found.
 Normal termination of Gaussian 09 at Mon Apr  1 21:41:57 2013.
